HEADER
"PSFversion" "1.00"
"design" "(\"SRAM\" \"SRAM_array_128x16_test\" \"schematic\" \"\")"
"simulator" "spectre"
"temperature" "27"
"host" ""
"date" "Nov 20 18:57:01 2021"
"title" ""
"analysisList" "()"
END
