HEADER
"PSFversion" "1.00"
"N3n N0n N8n N7n N2n N1n" "NCSU_Analog_Parts_nmos4_spectre"
"P1n P0n" "NCSU_Analog_Parts_pmos4_spectre"
"BLv" ":1v"
"BL_barv" ":2v"
"Gndv" ":3v"
"RBLv" ":4v"
"RWLv" ":5v"
"Vddv" ":6v"
"WBLv" ":7v"
