HEADER
"PSFversion" "1.00"
"I2047n I2046n I2045n I2044n I2043n I2042n I2041n I2040n I2039n I2038n I2037n I2036n I2035n I2034n I2033n I2032n I2031n I2030n I2029n I2028n I2027n I2026n I2025n I2024n I2023n I2022n I2021n I2020n I2019n I2018n I2017n I2016n I2015n I2014n I2013n I2012n I2011n I2010n I2009n I2008n I2007n I2006n I2005n I2004n I2003n I2002n I2001n I2000n I1999n I1998n I1997n I1996n I1995n I1994n I1993n I1992n I1991n I1990n I1989n I1988n I1987n I1986n I1985n I1984n I1983n I1982n I1981n I1980n I1979n I1978n I1977n I1976n I1975n I1974n I1973n I1972n I1971n I1970n I1969n I1968n I1967n I1966n I1965n I1964n I1963n I1962n I1961n I1960n I1959n I1958n I1957n I1956n I1955n I1954n I1953n I1952n I1951n I1950n I1949n I1948n I1947n I1946n I1945n I1944n I1943n I1942n I1941n I1940n I1939n I1938n I1937n I1936n I1935n I1934n I1933n I1932n I1931n I1930n I1929n I1928n I1927n I1926n I1925n I1924n I1923n I1922n I1921n I1920n I1919n I1918n I1917n I1916n I1915n I1914n I1913n I1912n I1911n I1910n I1909n I1908n I1907n I1906n I1905n I1904n I1903n I1902n I1901n I1900n I1899n I1898n I1897n I1896n I1895n I1894n I1893n I1892n I1891n I1890n I1889n I1888n I1887n I1886n I1885n I1884n I1883n I1882n I1881n I1880n I1879n I1878n I1877n I1876n I1875n I1874n I1873n I1872n I1871n I1870n I1869n I1868n I1867n I1866n I1865n I1864n I1863n I1862n I1861n I1860n I1859n I1858n I1857n I1856n I1855n I1854n I1853n I1852n I1851n I1850n I1849n I1848n I1847n I1846n I1845n I1844n I1843n I1842n I1841n I1840n I1839n I1838n I1837n I1836n I1835n I1834n I1833n I1832n I1831n I1830n I1829n I1828n I1827n I1826n I1825n I1824n I1823n I1822n I1821n I1820n I1819n I1818n I1817n I1816n I1815n I1814n I1813n I1812n I1811n I1810n I1809n I1808n I1807n I1806n I1805n I1804n I1803n I1802n I1801n I1800n I1799n I1798n I1797n I1796n I1795n I1794n I1793n I1792n I1791n I1790n I1789n I1788n I1787n I1786n I1785n I1784n I1783n I1782n I1781n I1780n I1779n I1778n I1777n I1776n I1775n I1774n I1773n I1772n I1771n I1770n I1769n I1768n I1767n I1766n I1765n I1764n I1763n I1762n I1761n I1760n I1759n I1758n I1757n I1756n I1755n I1754n I1753n I1752n I1751n I1750n I1749n I1748n I1747n I1746n I1745n I1744n I1743n I1742n I1741n I1740n I1739n I1738n I1737n I1736n I1735n I1734n I1733n I1732n I1731n I1730n I1729n I1728n I1727n I1726n I1725n I1724n I1723n I1722n I1721n I1720n I1719n I1718n I1717n I1716n I1715n I1714n I1713n I1712n I1711n I1710n I1709n I1708n I1707n I1706n I1705n I1704n I1703n I1702n I1701n I1700n I1699n I1698n I1697n I1696n I1695n I1694n I1693n I1692n I1691n I1690n I1689n I1688n I1687n I1686n I1685n I1684n I1683n I1682n I1681n I1680n I1679n I1678n I1677n I1676n I1675n I1674n I1673n I1672n I1671n I1670n I1669n I1668n I1667n I1666n I1665n I1664n I1663n I1662n I1661n I1660n I1659n I1658n I1657n I1656n I1655n I1654n I1653n I1652n I1651n I1650n I1649n I1648n I1647n I1646n I1645n I1644n I1643n I1642n I1641n I1640n I1639n I1638n I1637n I1636n I1635n I1634n I1633n I1632n I1631n I1630n I1629n I1628n I1627n I1626n I1625n I1624n I1623n I1622n I1621n I1620n I1619n I1618n I1617n I1616n I1615n I1614n I1613n I1612n I1611n I1610n I1609n I1608n I1607n I1606n I1605n I1604n I1603n I1602n I1601n I1600n I1599n I1598n I1597n I1596n I1595n I1594n I1593n I1592n I1591n I1590n I1589n I1588n I1587n I1586n I1585n I1584n I1583n I1582n I1581n I1580n I1579n I1578n I1577n I1576n I1575n I1574n I1573n I1572n I1571n I1570n I1569n I1568n I1567n I1566n I1565n I1564n I1563n I1562n I1561n I1560n I1559n I1558n I1557n I1556n I1555n I1554n I1553n I1552n I1551n I1550n I1549n I1548n I1547n I1546n I1545n I1544n I1543n I1542n I1541n I1540n I1539n I1538n I1537n I1536n I1535n I1534n I1533n I1532n I1531n I1530n I1529n I1528n I1527n I1526n I1525n I1524n I1523n I1522n I1521n I1520n I1519n I1518n I1517n I1516n I1515n I1514n I1513n I1512n I1511n I1510n I1509n I1508n I1507n I1506n I1505n I1504n I1503n I1502n I1501n I1500n I1499n I1498n I1497n I1496n I1495n I1494n I1493n I1492n I1491n I1490n I1489n I1488n I1487n I1486n I1485n I1484n I1483n I1482n I1481n I1480n I1479n I1478n I1477n I1476n I1475n I1474n I1473n I1472n I1471n I1470n I1469n I1468n I1467n I1466n I1465n I1464n I1463n I1462n I1461n I1460n I1459n I1458n I1457n I1456n I1455n I1454n I1453n I1452n I1451n I1450n I1449n I1448n I1447n I1446n I1445n I1444n I1443n I1442n I1441n I1440n I1439n I1438n I1437n I1436n I1435n I1434n I1433n I1432n I1431n I1430n I1429n I1428n I1427n I1426n I1425n I1424n I1423n I1422n I1421n I1420n I1419n I1418n I1417n I1416n I1415n I1414n I1413n I1412n I1411n I1410n I1409n I1408n I1407n I1406n I1405n I1404n I1403n I1402n I1401n I1400n I1399n I1398n I1397n I1396n I1395n I1394n I1393n I1392n I1391n I1390n I1389n I1388n I1387n I1386n I1385n I1384n I1383n I1382n I1381n I1380n I1379n I1378n I1377n I1376n I1375n I1374n I1373n I1372n I1371n I1370n I1369n I1368n I1367n I1366n I1365n I1364n I1363n I1362n I1361n I1360n I1359n I1358n I1357n I1356n I1355n I1354n I1353n I1352n I1351n I1350n I1349n I1348n I1347n I1346n I1345n I1344n I1343n I1342n I1341n I1340n I1339n I1338n I1337n I1336n I1335n I1334n I1333n I1332n I1331n I1330n I1329n I1328n I1327n I1326n I1325n I1324n I1323n I1322n I1321n I1320n I1319n I1318n I1317n I1316n I1315n I1314n I1313n I1312n I1311n I1310n I1309n I1308n I1307n I1306n I1305n I1304n I1303n I1302n I1301n I1300n I1299n I1298n I1297n I1296n I1295n I1294n I1293n I1292n I1291n I1290n I1289n I1288n I1287n I1286n I1285n I1284n I1283n I1282n I1281n I1280n I1279n I1278n I1277n I1276n I1275n I1274n I1273n I1272n I1271n I1270n I1269n I1268n I1267n I1266n I1265n I1264n I1263n I1262n I1261n I1260n I1259n I1258n I1257n I1256n I1255n I1254n I1253n I1252n I1251n I1250n I1249n I1248n I1247n I1246n I1245n I1244n I1243n I1242n I1241n I1240n I1239n I1238n I1237n I1236n I1235n I1234n I1233n I1232n I1231n I1230n I1229n I1228n I1227n I1226n I1225n I1224n I1223n I1222n I1221n I1220n I1219n I1218n I1217n I1216n I1215n I1214n I1213n I1212n I1211n I1210n I1209n I1208n I1207n I1206n I1205n I1204n I1203n I1202n I1201n I1200n I1199n I1198n I1197n I1196n I1195n I1194n I1193n I1192n I1191n I1190n I1189n I1188n I1187n I1186n I1185n I1184n I1183n I1182n I1181n I1180n I1179n I1178n I1177n I1176n I1175n I1174n I1173n I1172n I1171n I1170n I1169n I1168n I1167n I1166n I1165n I1164n I1163n I1162n I1161n I1160n I1159n I1158n I1157n I1156n I1155n I1154n I1153n I1152n I1151n I1150n I1149n I1148n I1147n I1146n I1145n I1144n I1143n I1142n I1141n I1140n I1139n I1138n I1137n I1136n I1135n I1134n I1133n I1132n I1131n I1130n I1129n I1128n I1127n I1126n I1125n I1124n I1123n I1122n I1121n I1120n I1119n I1118n I1117n I1116n I1115n I1114n I1113n I1112n I1111n I1110n I1109n I1108n I1107n I1106n I1105n I1104n I1103n I1102n I1101n I1100n I1099n I1098n I1097n I1096n I1095n I1094n I1093n I1092n I1091n I1090n I1089n I1088n I1087n I1086n I1085n I1084n I1083n I1082n I1081n I1080n I1079n I1078n I1077n I1076n I1075n I1074n I1073n I1072n I1071n I1070n I1069n I1068n I1067n I1066n I1065n I1064n I1063n I1062n I1061n I1060n I1059n I1058n I1057n I1056n I1055n I1054n I1053n I1052n I1051n I1050n I1049n I1048n I1047n I1046n I1045n I1044n I1043n I1042n I1041n I1040n I1039n I1038n I1037n I1036n I1035n I1034n I1033n I1032n I1031n I1030n I1029n I1028n I1027n I1026n I1025n I1024n I1023n I1022n I1021n I1020n I1019n I1018n I1017n I1016n I1015n I1014n I1013n I1012n I1011n I1010n I1009n I1008n I1007n I1006n I1005n I1004n I1003n I1002n I1001n I1000n I999n I998n I997n I996n I995n I994n I993n I992n I991n I990n I989n I988n I987n I986n I985n I984n I983n I982n I981n I980n I979n I978n I977n I976n I975n I974n I973n I972n I971n I970n I969n I968n I967n I966n I965n I964n I963n I962n I961n I960n I959n I958n I957n I956n I955n I954n I953n I952n I951n I950n I949n I948n I947n I946n I945n I944n I943n I942n I941n I940n I939n I938n I937n I936n I935n I934n I933n I932n I931n I930n I929n I928n I927n I926n I925n I924n I923n I922n I921n I920n I919n I918n I917n I916n I915n I914n I913n I912n I911n I910n I909n I908n I907n I906n I905n I904n I903n I902n I901n I900n I899n I898n I897n I896n I895n I894n I893n I892n I891n I890n I889n I888n I887n I886n I885n I884n I883n I882n I881n I880n I879n I878n I877n I876n I875n I874n I873n I872n I871n I870n I869n I868n I867n I866n I865n I864n I863n I862n I861n I860n I859n I858n I857n I856n I855n I854n I853n I852n I851n I850n I849n I848n I847n I846n I845n I844n I843n I842n I841n I840n I839n I838n I837n I836n I835n I834n I833n I832n I831n I830n I829n I828n I827n I826n I825n I824n I823n I822n I821n I820n I819n I818n I817n I816n I815n I814n I813n I812n I811n I810n I809n I808n I807n I806n I805n I804n I803n I802n I801n I800n I799n I798n I797n I796n I795n I794n I793n I792n I791n I790n I789n I788n I787n I786n I785n I784n I783n I782n I781n I780n I779n I778n I777n I776n I775n I774n I773n I772n I771n I770n I769n I768n I767n I766n I765n I764n I763n I762n I761n I760n I759n I758n I757n I756n I755n I754n I753n I752n I751n I750n I749n I748n I747n I746n I745n I744n I743n I742n I741n I740n I739n I738n I737n I736n I735n I734n I733n I732n I731n I730n I729n I728n I727n I726n I725n I724n I723n I722n I721n I720n I719n I718n I717n I716n I715n I714n I713n I712n I711n I710n I709n I708n I707n I706n I705n I704n I703n I702n I701n I700n I699n I698n I697n I696n I695n I694n I693n I692n I691n I690n I689n I688n I687n I686n I685n I684n I683n I682n I681n I680n I679n I678n I677n I676n I675n I674n I673n I672n I671n I670n I669n I668n I667n I666n I665n I664n I663n I662n I661n I660n I659n I658n I657n I656n I655n I654n I653n I652n I651n I650n I649n I648n I647n I646n I645n I644n I643n I642n I641n I640n I639n I638n I637n I636n I635n I634n I633n I632n I631n I630n I629n I628n I627n I626n I625n I624n I623n I622n I621n I620n I619n I618n I617n I616n I615n I614n I613n I612n I611n I610n I609n I608n I607n I606n I605n I604n I603n I602n I601n I600n I599n I598n I597n I596n I595n I594n I593n I592n I591n I590n I589n I588n I587n I586n I585n I584n I583n I582n I581n I580n I579n I578n I577n I576n I575n I574n I573n I572n I571n I570n I569n I568n I567n I566n I565n I564n I563n I562n I561n I560n I559n I558n I557n I556n I555n I554n I553n I552n I551n I550n I549n I548n I547n I546n I545n I544n I543n I542n I541n I540n I539n I538n I537n I536n I535n I534n I533n I532n I531n I530n I529n I528n I527n I526n I525n I524n I523n I522n I521n I520n I519n I518n I517n I516n I515n I514n I513n I512n I511n I510n I509n I508n I507n I506n I505n I504n I503n I502n I501n I500n I499n I498n I497n I496n I495n I494n I493n I492n I491n I490n I489n I488n I487n I486n I485n I484n I483n I482n I481n I480n I479n I478n I477n I476n I475n I474n I473n I472n I471n I470n I469n I468n I467n I466n I465n I464n I463n I462n I461n I460n I459n I458n I457n I456n I455n I454n I453n I452n I451n I450n I449n I448n I447n I446n I445n I444n I443n I442n I441n I440n I439n I438n I437n I436n I435n I434n I433n I432n I431n I430n I429n I428n I427n I426n I425n I424n I423n I422n I421n I420n I419n I418n I417n I416n I415n I414n I413n I412n I411n I410n I409n I408n I407n I406n I405n I404n I403n I402n I401n I400n I399n I398n I397n I396n I395n I394n I393n I392n I391n I390n I389n I388n I387n I386n I385n I384n I383n I382n I381n I380n I379n I378n I377n I376n I375n I374n I373n I372n I371n I370n I369n I368n I367n I366n I365n I364n I363n I362n I361n I360n I359n I358n I357n I356n I355n I354n I353n I352n I351n I350n I349n I348n I347n I346n I345n I344n I343n I342n I341n I340n I339n I338n I337n I336n I335n I334n I333n I332n I331n I330n I329n I328n I327n I326n I325n I324n I323n I322n I321n I320n I319n I318n I317n I316n I315n I314n I313n I312n I311n I310n I309n I308n I307n I306n I305n I304n I303n I302n I301n I300n I299n I298n I297n I296n I295n I294n I293n I292n I291n I290n I289n I288n I287n I286n I285n I284n I283n I282n I281n I280n I279n I278n I277n I276n I275n I274n I273n I272n I271n I270n I269n I268n I267n I266n I265n I264n I263n I262n I261n I260n I259n I258n I257n I256n I255n I254n I253n I252n I251n I250n I249n I248n I247n I246n I245n I244n I243n I242n I241n I240n I239n I238n I237n I236n I235n I234n I233n I232n I231n I230n I229n I228n I227n I226n I225n I224n I223n I222n I221n I220n I219n I218n I217n I216n I215n I214n I213n I212n I211n I210n I209n I208n I207n I206n I205n I204n I203n I202n I201n I200n I199n I198n I197n I196n I195n I194n I193n I192n I191n I190n I189n I188n I187n I186n I185n I184n I183n I182n I181n I180n I179n I178n I177n I176n I175n I174n I173n I172n I171n I170n I169n I168n I167n I166n I165n I164n I163n I162n I161n I160n I159n I158n I157n I156n I155n I154n I153n I152n I151n I150n I149n I148n I147n I146n I145n I144n I143n I142n I141n I140n I139n I138n I137n I136n I135n I134n I133n I132n I131n I130n I129n I128n I127n I126n I125n I124n I123n I122n I121n I120n I119n I118n I117n I116n I115n I114n I113n I112n I111n I110n I109n I108n I107n I106n I105n I104n I103n I102n I101n I100n I99n I98n I97n I96n I95n I94n I93n I92n I91n I90n I89n I88n I87n I86n I85n I84n I83n I82n I81n I80n I79n I78n I77n I76n I75n I74n I73n I72n I71n I70n I69n I68n I67n I66n I65n I64n I63n I62n I61n I60n I59n I58n I57n I56n I55n I54n I53n I52n I51n I50n I49n I48n I47n I46n I45n I44n I43n I42n I41n I40n I39n I38n I37n I36n I35n I34n I33n I32n I31n I30n I29n I28n I27n I26n I25n I24n I23n I22n I21n I20n I19n I18n I17n I16n I15n I14n I13n I12n I11n I10n I9n I8n I7n I6n I5n I4n I3n I2n I1n I0n" "SRAM_8T_SRAM_schematic"
"BL<0>v" ":1v"
"BL<1>v" ":2v"
"BL<2>v" ":3v"
"BL<3>v" ":4v"
"BL<4>v" ":5v"
"BL<5>v" ":6v"
"BL<6>v" ":7v"
"BL<7>v" ":8v"
"BL<8>v" ":9v"
"BL<9>v" ":10v"
"BL<10>v" ":11v"
"BL<11>v" ":12v"
"BL<12>v" ":13v"
"BL<13>v" ":14v"
"BL<14>v" ":15v"
"BL<15>v" ":16v"
"BL_bar<0>v" ":17v"
"BL_bar<1>v" ":18v"
"BL_bar<2>v" ":19v"
"BL_bar<3>v" ":20v"
"BL_bar<4>v" ":21v"
"BL_bar<5>v" ":22v"
"BL_bar<6>v" ":23v"
"BL_bar<7>v" ":24v"
"BL_bar<8>v" ":25v"
"BL_bar<9>v" ":26v"
"BL_bar<10>v" ":27v"
"BL_bar<11>v" ":28v"
"BL_bar<12>v" ":29v"
"BL_bar<13>v" ":30v"
"BL_bar<14>v" ":31v"
"BL_bar<15>v" ":32v"
"Gndv" ":33v"
"RBL<0>v" ":34v"
"RBL<1>v" ":35v"
"RBL<2>v" ":36v"
"RBL<3>v" ":37v"
"RBL<4>v" ":38v"
"RBL<5>v" ":39v"
"RBL<6>v" ":40v"
"RBL<7>v" ":41v"
"RBL<8>v" ":42v"
"RBL<9>v" ":43v"
"RBL<10>v" ":44v"
"RBL<11>v" ":45v"
"RBL<12>v" ":46v"
"RBL<13>v" ":47v"
"RBL<14>v" ":48v"
"RBL<15>v" ":49v"
"RWL<0>v" ":50v"
"RWL<1>v" ":51v"
"RWL<2>v" ":52v"
"RWL<3>v" ":53v"
"RWL<4>v" ":54v"
"RWL<5>v" ":55v"
"RWL<6>v" ":56v"
"RWL<7>v" ":57v"
"RWL<8>v" ":58v"
"RWL<9>v" ":59v"
"RWL<10>v" ":60v"
"RWL<11>v" ":61v"
"RWL<12>v" ":62v"
"RWL<13>v" ":63v"
"RWL<14>v" ":64v"
"RWL<15>v" ":65v"
"RWL<16>v" ":66v"
"RWL<17>v" ":67v"
"RWL<18>v" ":68v"
"RWL<19>v" ":69v"
"RWL<20>v" ":70v"
"RWL<21>v" ":71v"
"RWL<22>v" ":72v"
"RWL<23>v" ":73v"
"RWL<24>v" ":74v"
"RWL<25>v" ":75v"
"RWL<26>v" ":76v"
"RWL<27>v" ":77v"
"RWL<28>v" ":78v"
"RWL<29>v" ":79v"
"RWL<30>v" ":80v"
"RWL<31>v" ":81v"
"RWL<32>v" ":82v"
"RWL<33>v" ":83v"
"RWL<34>v" ":84v"
"RWL<35>v" ":85v"
"RWL<36>v" ":86v"
"RWL<37>v" ":87v"
"RWL<38>v" ":88v"
"RWL<39>v" ":89v"
"RWL<40>v" ":90v"
"RWL<41>v" ":91v"
"RWL<42>v" ":92v"
"RWL<43>v" ":93v"
"RWL<44>v" ":94v"
"RWL<45>v" ":95v"
"RWL<46>v" ":96v"
"RWL<47>v" ":97v"
"RWL<48>v" ":98v"
"RWL<49>v" ":99v"
"RWL<50>v" ":100v"
"RWL<51>v" ":101v"
"RWL<52>v" ":102v"
"RWL<53>v" ":103v"
"RWL<54>v" ":104v"
"RWL<55>v" ":105v"
"RWL<56>v" ":106v"
"RWL<57>v" ":107v"
"RWL<58>v" ":108v"
"RWL<59>v" ":109v"
"RWL<60>v" ":110v"
"RWL<61>v" ":111v"
"RWL<62>v" ":112v"
"RWL<63>v" ":113v"
"RWL<64>v" ":114v"
"RWL<65>v" ":115v"
"RWL<66>v" ":116v"
"RWL<67>v" ":117v"
"RWL<68>v" ":118v"
"RWL<69>v" ":119v"
"RWL<70>v" ":120v"
"RWL<71>v" ":121v"
"RWL<72>v" ":122v"
"RWL<73>v" ":123v"
"RWL<74>v" ":124v"
"RWL<75>v" ":125v"
"RWL<76>v" ":126v"
"RWL<77>v" ":127v"
"RWL<78>v" ":128v"
"RWL<79>v" ":129v"
"RWL<80>v" ":130v"
"RWL<81>v" ":131v"
"RWL<82>v" ":132v"
"RWL<83>v" ":133v"
"RWL<84>v" ":134v"
"RWL<85>v" ":135v"
"RWL<86>v" ":136v"
"RWL<87>v" ":137v"
"RWL<88>v" ":138v"
"RWL<89>v" ":139v"
"RWL<90>v" ":140v"
"RWL<91>v" ":141v"
"RWL<92>v" ":142v"
"RWL<93>v" ":143v"
"RWL<94>v" ":144v"
"RWL<95>v" ":145v"
"RWL<96>v" ":146v"
"RWL<97>v" ":147v"
"RWL<98>v" ":148v"
"RWL<99>v" ":149v"
"RWL<100>v" ":150v"
"RWL<101>v" ":151v"
"RWL<102>v" ":152v"
"RWL<103>v" ":153v"
"RWL<104>v" ":154v"
"RWL<105>v" ":155v"
"RWL<106>v" ":156v"
"RWL<107>v" ":157v"
"RWL<108>v" ":158v"
"RWL<109>v" ":159v"
"RWL<110>v" ":160v"
"RWL<111>v" ":161v"
"RWL<112>v" ":162v"
"RWL<113>v" ":163v"
"RWL<114>v" ":164v"
"RWL<115>v" ":165v"
"RWL<116>v" ":166v"
"RWL<117>v" ":167v"
"RWL<118>v" ":168v"
"RWL<119>v" ":169v"
"RWL<120>v" ":170v"
"RWL<121>v" ":171v"
"RWL<122>v" ":172v"
"RWL<123>v" ":173v"
"RWL<124>v" ":174v"
"RWL<125>v" ":175v"
"RWL<126>v" ":176v"
"RWL<127>v" ":177v"
"Vddv" ":178v"
"WBL<0>v" ":179v"
"WBL<1>v" ":180v"
"WBL<2>v" ":181v"
"WBL<3>v" ":182v"
"WBL<4>v" ":183v"
"WBL<5>v" ":184v"
"WBL<6>v" ":185v"
"WBL<7>v" ":186v"
"WBL<8>v" ":187v"
"WBL<9>v" ":188v"
"WBL<10>v" ":189v"
"WBL<11>v" ":190v"
"WBL<12>v" ":191v"
"WBL<13>v" ":192v"
"WBL<14>v" ":193v"
"WBL<15>v" ":194v"
"WBL<16>v" ":195v"
"WBL<17>v" ":196v"
"WBL<18>v" ":197v"
"WBL<19>v" ":198v"
"WBL<20>v" ":199v"
"WBL<21>v" ":200v"
"WBL<22>v" ":201v"
"WBL<23>v" ":202v"
"WBL<24>v" ":203v"
"WBL<25>v" ":204v"
"WBL<26>v" ":205v"
"WBL<27>v" ":206v"
"WBL<28>v" ":207v"
"WBL<29>v" ":208v"
"WBL<30>v" ":209v"
"WBL<31>v" ":210v"
"WBL<32>v" ":211v"
"WBL<33>v" ":212v"
"WBL<34>v" ":213v"
"WBL<35>v" ":214v"
"WBL<36>v" ":215v"
"WBL<37>v" ":216v"
"WBL<38>v" ":217v"
"WBL<39>v" ":218v"
"WBL<40>v" ":219v"
"WBL<41>v" ":220v"
"WBL<42>v" ":221v"
"WBL<43>v" ":222v"
"WBL<44>v" ":223v"
"WBL<45>v" ":224v"
"WBL<46>v" ":225v"
"WBL<47>v" ":226v"
"WBL<48>v" ":227v"
"WBL<49>v" ":228v"
"WBL<50>v" ":229v"
"WBL<51>v" ":230v"
"WBL<52>v" ":231v"
"WBL<53>v" ":232v"
"WBL<54>v" ":233v"
"WBL<55>v" ":234v"
"WBL<56>v" ":235v"
"WBL<57>v" ":236v"
"WBL<58>v" ":237v"
"WBL<59>v" ":238v"
"WBL<60>v" ":239v"
"WBL<61>v" ":240v"
"WBL<62>v" ":241v"
"WBL<63>v" ":242v"
"WBL<64>v" ":243v"
"WBL<65>v" ":244v"
"WBL<66>v" ":245v"
"WBL<67>v" ":246v"
"WBL<68>v" ":247v"
"WBL<69>v" ":248v"
"WBL<70>v" ":249v"
"WBL<71>v" ":250v"
"WBL<72>v" ":251v"
"WBL<73>v" ":252v"
"WBL<74>v" ":253v"
"WBL<75>v" ":254v"
"WBL<76>v" ":255v"
"WBL<77>v" ":256v"
"WBL<78>v" ":257v"
"WBL<79>v" ":258v"
"WBL<80>v" ":259v"
"WBL<81>v" ":260v"
"WBL<82>v" ":261v"
"WBL<83>v" ":262v"
"WBL<84>v" ":263v"
"WBL<85>v" ":264v"
"WBL<86>v" ":265v"
"WBL<87>v" ":266v"
"WBL<88>v" ":267v"
"WBL<89>v" ":268v"
"WBL<90>v" ":269v"
"WBL<91>v" ":270v"
"WBL<92>v" ":271v"
"WBL<93>v" ":272v"
"WBL<94>v" ":273v"
"WBL<95>v" ":274v"
"WBL<96>v" ":275v"
"WBL<97>v" ":276v"
"WBL<98>v" ":277v"
"WBL<99>v" ":278v"
"WBL<100>v" ":279v"
"WBL<101>v" ":280v"
"WBL<102>v" ":281v"
"WBL<103>v" ":282v"
"WBL<104>v" ":283v"
"WBL<105>v" ":284v"
"WBL<106>v" ":285v"
"WBL<107>v" ":286v"
"WBL<108>v" ":287v"
"WBL<109>v" ":288v"
"WBL<110>v" ":289v"
"WBL<111>v" ":290v"
"WBL<112>v" ":291v"
"WBL<113>v" ":292v"
"WBL<114>v" ":293v"
"WBL<115>v" ":294v"
"WBL<116>v" ":295v"
"WBL<117>v" ":296v"
"WBL<118>v" ":297v"
"WBL<119>v" ":298v"
"WBL<120>v" ":299v"
"WBL<121>v" ":300v"
"WBL<122>v" ":301v"
"WBL<123>v" ":302v"
"WBL<124>v" ":303v"
"WBL<125>v" ":304v"
"WBL<126>v" ":305v"
"WBL<127>v" ":306v"
