HEADER
"PSFversion" "1.00"
"+16383n +16382n +16381n +16380n +16379n +16378n +16377n +16376n +16375n +16374n +16373n +16372n +16371n +16370n +16369n +16368n +16367n +16366n +16365n +16364n +16363n +16362n +16361n +16360n +16359n +16358n +16357n +16356n +16355n +16354n +16353n +16352n +16351n +16350n +16349n +16348n +16347n +16346n +16345n +16344n +16343n +16342n +16341n +16340n +16339n +16338n +16337n +16336n +16335n +16334n +16333n +16332n +16331n +16330n +16329n +16328n +16327n +16326n +16325n +16324n +16323n +16322n +16321n +16320n +16319n +16318n +16317n +16316n +16315n +16314n +16313n +16312n +16311n +16310n +16309n +16308n +16307n +16306n +16305n +16304n +16303n +16302n +16301n +16300n +16299n +16298n +16297n +16296n +16295n +16294n +16293n +16292n +16291n +16290n +16289n +16288n +16287n +16286n +16285n +16284n +16283n +16282n +16281n +16280n +16279n +16278n +16277n +16276n +16275n +16274n +16273n +16272n +16271n +16270n +16269n +16268n +16267n +16266n +16265n +16264n +16263n +16262n +16261n +16260n +16259n +16258n +16257n +16256n +16255n +16254n +16253n +16252n +16251n +16250n +16249n +16248n +16247n +16246n +16245n +16244n +16243n +16242n +16241n +16240n +16239n +16238n +16237n +16236n +16235n +16234n +16233n +16232n +16231n +16230n +16229n +16228n +16227n +16226n +16225n +16224n +16223n +16222n +16221n +16220n +16219n +16218n +16217n +16216n +16215n +16214n +16213n +16212n +16211n +16210n +16209n +16208n +16207n +16206n +16205n +16204n +16203n +16202n +16201n +16200n +16199n +16198n +16197n +16196n +16195n +16194n +16193n +16192n +16191n +16190n +16189n +16188n +16187n +16186n +16185n +16184n +16183n +16182n +16181n +16180n +16179n +16178n +16177n +16176n +16175n +16174n +16173n +16172n +16171n +16170n +16169n +16168n +16167n +16166n +16165n +16164n +16163n +16162n +16161n +16160n +16159n +16158n +16157n +16156n +16155n +16154n +16153n +16152n +16151n +16150n +16149n +16148n +16147n +16146n +16145n +16144n +16143n +16142n +16141n +16140n +16139n +16138n +16137n +16136n +16135n +16134n +16133n +16132n +16131n +16130n +16129n +16128n +16127n +16126n +16125n +16124n +16123n +16122n +16121n +16120n +16119n +16118n +16117n +16116n +16115n +16114n +16113n +16112n +16111n +16110n +16109n +16108n +16107n +16106n +16105n +16104n +16103n +16102n +16101n +16100n +16099n +16098n +16097n +16096n +16095n +16094n +16093n +16092n +16091n +16090n +16089n +16088n +16087n +16086n +16085n +16084n +16083n +16082n +16081n +16080n +16079n +16078n +16077n +16076n +16075n +16074n +16073n +16072n +16071n +16070n +16069n +16068n +16067n +16066n +16065n +16064n +16063n +16062n +16061n +16060n +16059n +16058n +16057n +16056n +16055n +16054n +16053n +16052n +16051n +16050n +16049n +16048n +16047n +16046n +16045n +16044n +16043n +16042n +16041n +16040n +16039n +16038n +16037n +16036n +16035n +16034n +16033n +16032n +16031n +16030n +16029n +16028n +16027n +16026n +16025n +16024n +16023n +16022n +16021n +16020n +16019n +16018n +16017n +16016n +16015n +16014n +16013n +16012n +16011n +16010n +16009n +16008n +16007n +16006n +16005n +16004n +16003n +16002n +16001n +16000n +15999n +15998n +15997n +15996n +15995n +15994n +15993n +15992n +15991n +15990n +15989n +15988n +15987n +15986n +15985n +15984n +15983n +15982n +15981n +15980n +15979n +15978n +15977n +15976n +15975n +15974n +15973n +15972n +15971n +15970n +15969n +15968n +15967n +15966n +15965n +15964n +15963n +15962n +15961n +15960n +15959n +15958n +15957n +15956n +15955n +15954n +15953n +15952n +15951n +15950n +15949n +15948n +15947n +15946n +15945n +15944n +15943n +15942n +15941n +15940n +15939n +15938n +15937n +15936n +15935n +15934n +15933n +15932n +15931n +15930n +15929n +15928n +15927n +15926n +15925n +15924n +15923n +15922n +15921n +15920n +15919n +15918n +15917n +15916n +15915n +15914n +15913n +15912n +15911n +15910n +15909n +15908n +15907n +15906n +15905n +15904n +15903n +15902n +15901n +15900n +15899n +15898n +15897n +15896n +15895n +15894n +15893n +15892n +15891n +15890n +15889n +15888n +15887n +15886n +15885n +15884n +15883n +15882n +15881n +15880n +15879n +15878n +15877n +15876n +15875n +15874n +15873n +15872n +15871n +15870n +15869n +15868n +15867n +15866n +15865n +15864n +15863n +15862n +15861n +15860n +15859n +15858n +15857n +15856n +15855n +15854n +15853n +15852n +15851n +15850n +15849n +15848n +15847n +15846n +15845n +15844n +15843n +15842n +15841n +15840n +15839n +15838n +15837n +15836n +15835n +15834n +15833n +15832n +15831n +15830n +15829n +15828n +15827n +15826n +15825n +15824n +15823n +15822n +15821n +15820n +15819n +15818n +15817n +15816n +15815n +15814n +15813n +15812n +15811n +15810n +15809n +15808n +15807n +15806n +15805n +15804n +15803n +15802n +15801n +15800n +15799n +15798n +15797n +15796n +15795n +15794n +15793n +15792n +15791n +15790n +15789n +15788n +15787n +15786n +15785n +15784n +15783n +15782n +15781n +15780n +15779n +15778n +15777n +15776n +15775n +15774n +15773n +15772n +15771n +15770n +15769n +15768n +15767n +15766n +15765n +15764n +15763n +15762n +15761n +15760n +15759n +15758n +15757n +15756n +15755n +15754n +15753n +15752n +15751n +15750n +15749n +15748n +15747n +15746n +15745n +15744n +15743n +15742n +15741n +15740n +15739n +15738n +15737n +15736n +15735n +15734n +15733n +15732n +15731n +15730n +15729n +15728n +15727n +15726n +15725n +15724n +15723n +15722n +15721n +15720n +15719n +15718n +15717n +15716n +15715n +15714n +15713n +15712n +15711n +15710n +15709n +15708n +15707n +15706n +15705n +15704n +15703n +15702n +15701n +15700n +15699n +15698n +15697n +15696n +15695n +15694n +15693n +15692n +15691n +15690n +15689n +15688n +15687n +15686n +15685n +15684n +15683n +15682n +15681n +15680n +15679n +15678n +15677n +15676n +15675n +15674n +15673n +15672n +15671n +15670n +15669n +15668n +15667n +15666n +15665n +15664n +15663n +15662n +15661n +15660n +15659n +15658n +15657n +15656n +15655n +15654n +15653n +15652n +15651n +15650n +15649n +15648n +15647n +15646n +15645n +15644n +15643n +15642n +15641n +15640n +15639n +15638n +15637n +15636n +15635n +15634n +15633n +15632n +15631n +15630n +15629n +15628n +15627n +15626n +15625n +15624n +15623n +15622n +15621n +15620n +15619n +15618n +15617n +15616n +15615n +15614n +15613n +15612n +15611n +15610n +15609n +15608n +15607n +15606n +15605n +15604n +15603n +15602n +15601n +15600n +15599n +15598n +15597n +15596n +15595n +15594n +15593n +15592n +15591n +15590n +15589n +15588n +15587n +15586n +15585n +15584n +15583n +15582n +15581n +15580n +15579n +15578n +15577n +15576n +15575n +15574n +15573n +15572n +15571n +15570n +15569n +15568n +15567n +15566n +15565n +15564n +15563n +15562n +15561n +15560n +15559n +15558n +15557n +15556n +15555n +15554n +15553n +15552n +15551n +15550n +15549n +15548n +15547n +15546n +15545n +15544n +15543n +15542n +15541n +15540n +15539n +15538n +15537n +15536n +15535n +15534n +15533n +15532n +15531n +15530n +15529n +15528n +15527n +15526n +15525n +15524n +15523n +15522n +15521n +15520n +15519n +15518n +15517n +15516n +15515n +15514n +15513n +15512n +15511n +15510n +15509n +15508n +15507n +15506n +15505n +15504n +15503n +15502n +15501n +15500n +15499n +15498n +15497n +15496n +15495n +15494n +15493n +15492n +15491n +15490n +15489n +15488n +15487n +15486n +15485n +15484n +15483n +15482n +15481n +15480n +15479n +15478n +15477n +15476n +15475n +15474n +15473n +15472n +15471n +15470n +15469n +15468n +15467n +15466n +15465n +15464n +15463n +15462n +15461n +15460n +15459n +15458n +15457n +15456n +15455n +15454n +15453n +15452n +15451n +15450n +15449n +15448n +15447n +15446n +15445n +15444n +15443n +15442n +15441n +15440n +15439n +15438n +15437n +15436n +15435n +15434n +15433n +15432n +15431n +15430n +15429n +15428n +15427n +15426n +15425n +15424n +15423n +15422n +15421n +15420n +15419n +15418n +15417n +15416n +15415n +15414n +15413n +15412n +15411n +15410n +15409n +15408n +15407n +15406n +15405n +15404n +15403n +15402n +15401n +15400n +15399n +15398n +15397n +15396n +15395n +15394n +15393n +15392n +15391n +15390n +15389n +15388n +15387n +15386n +15385n +15384n +15383n +15382n +15381n +15380n +15379n +15378n +15377n +15376n +15375n +15374n +15373n +15372n +15371n +15370n +15369n +15368n +15367n +15366n +15365n +15364n +15363n +15362n +15361n +15360n +15359n +15358n +15357n +15356n +15355n +15354n +15353n +15352n +15351n +15350n +15349n +15348n +15347n +15346n +15345n +15344n +15343n +15342n +15341n +15340n +15339n +15338n +15337n +15336n +15335n +15334n +15333n +15332n +15331n +15330n +15329n +15328n +15327n +15326n +15325n +15324n +15323n +15322n +15321n +15320n +15319n +15318n +15317n +15316n +15315n +15314n +15313n +15312n +15311n +15310n +15309n +15308n +15307n +15306n +15305n +15304n +15303n +15302n +15301n +15300n +15299n +15298n +15297n +15296n +15295n +15294n +15293n +15292n +15291n +15290n +15289n +15288n +15287n +15286n +15285n +15284n +15283n +15282n +15281n +15280n +15279n +15278n +15277n +15276n +15275n +15274n +15273n +15272n +15271n +15270n +15269n +15268n +15267n +15266n +15265n +15264n +15263n +15262n +15261n +15260n +15259n +15258n +15257n +15256n +15255n +15254n +15253n +15252n +15251n +15250n +15249n +15248n +15247n +15246n +15245n +15244n +15243n +15242n +15241n +15240n +15239n +15238n +15237n +15236n +15235n +15234n +15233n +15232n +15231n +15230n +15229n +15228n +15227n +15226n +15225n +15224n +15223n +15222n +15221n +15220n +15219n +15218n +15217n +15216n +15215n +15214n +15213n +15212n +15211n +15210n +15209n +15208n +15207n +15206n +15205n +15204n +15203n +15202n +15201n +15200n +15199n +15198n +15197n +15196n +15195n +15194n +15193n +15192n +15191n +15190n +15189n +15188n +15187n +15186n +15185n +15184n +15183n +15182n +15181n +15180n +15179n +15178n +15177n +15176n +15175n +15174n +15173n +15172n +15171n +15170n +15169n +15168n +15167n +15166n +15165n +15164n +15163n +15162n +15161n +15160n +15159n +15158n +15157n +15156n +15155n +15154n +15153n +15152n +15151n +15150n +15149n +15148n +15147n +15146n +15145n +15144n +15143n +15142n +15141n +15140n +15139n +15138n +15137n +15136n +15135n +15134n +15133n +15132n +15131n +15130n +15129n +15128n +15127n +15126n +15125n +15124n +15123n +15122n +15121n +15120n +15119n +15118n +15117n +15116n +15115n +15114n +15113n +15112n +15111n +15110n +15109n +15108n +15107n +15106n +15105n +15104n +15103n +15102n +15101n +15100n +15099n +15098n +15097n +15096n +15095n +15094n +15093n +15092n +15091n +15090n +15089n +15088n +15087n +15086n +15085n +15084n +15083n +15082n +15081n +15080n +15079n +15078n +15077n +15076n +15075n +15074n +15073n +15072n +15071n +15070n +15069n +15068n +15067n +15066n +15065n +15064n +15063n +15062n +15061n +15060n +15059n +15058n +15057n +15056n +15055n +15054n +15053n +15052n +15051n +15050n +15049n +15048n +15047n +15046n +15045n +15044n +15043n +15042n +15041n +15040n +15039n +15038n +15037n +15036n +15035n +15034n +15033n +15032n +15031n +15030n +15029n +15028n +15027n +15026n +15025n +15024n +15023n +15022n +15021n +15020n +15019n +15018n +15017n +15016n +15015n +15014n +15013n +15012n +15011n +15010n +15009n +15008n +15007n +15006n +15005n +15004n +15003n +15002n +15001n +15000n +14999n +14998n +14997n +14996n +14995n +14994n +14993n +14992n +14991n +14990n +14989n +14988n +14987n +14986n +14985n +14984n +14983n +14982n +14981n +14980n +14979n +14978n +14977n +14976n +14975n +14974n +14973n +14972n +14971n +14970n +14969n +14968n +14967n +14966n +14965n +14964n +14963n +14962n +14961n +14960n +14959n +14958n +14957n +14956n +14955n +14954n +14953n +14952n +14951n +14950n +14949n +14948n +14947n +14946n +14945n +14944n +14943n +14942n +14941n +14940n +14939n +14938n +14937n +14936n +14935n +14934n +14933n +14932n +14931n +14930n +14929n +14928n +14927n +14926n +14925n +14924n +14923n +14922n +14921n +14920n +14919n +14918n +14917n +14916n +14915n +14914n +14913n +14912n +14911n +14910n +14909n +14908n +14907n +14906n +14905n +14904n +14903n +14902n +14901n +14900n +14899n +14898n +14897n +14896n +14895n +14894n +14893n +14892n +14891n +14890n +14889n +14888n +14887n +14886n +14885n +14884n +14883n +14882n +14881n +14880n +14879n +14878n +14877n +14876n +14875n +14874n +14873n +14872n +14871n +14870n +14869n +14868n +14867n +14866n +14865n +14864n +14863n +14862n +14861n +14860n +14859n +14858n +14857n +14856n +14855n +14854n +14853n +14852n +14851n +14850n +14849n +14848n +14847n +14846n +14845n +14844n +14843n +14842n +14841n +14840n +14839n +14838n +14837n +14836n +14835n +14834n +14833n +14832n +14831n +14830n +14829n +14828n +14827n +14826n +14825n +14824n +14823n +14822n +14821n +14820n +14819n +14818n +14817n +14816n +14815n +14814n +14813n +14812n +14811n +14810n +14809n +14808n +14807n +14806n +14805n +14804n +14803n +14802n +14801n +14800n +14799n +14798n +14797n +14796n +14795n +14794n +14793n +14792n +14791n +14790n +14789n +14788n +14787n +14786n +14785n +14784n +14783n +14782n +14781n +14780n +14779n +14778n +14777n +14776n +14775n +14774n +14773n +14772n +14771n +14770n +14769n +14768n +14767n +14766n +14765n +14764n +14763n +14762n +14761n +14760n +14759n +14758n +14757n +14756n +14755n +14754n +14753n +14752n +14751n +14750n +14749n +14748n +14747n +14746n +14745n +14744n +14743n +14742n +14741n +14740n +14739n +14738n +14737n +14736n +14735n +14734n +14733n +14732n +14731n +14730n +14729n +14728n +14727n +14726n +14725n +14724n +14723n +14722n +14721n +14720n +14719n +14718n +14717n +14716n +14715n +14714n +14713n +14712n +14711n +14710n +14709n +14708n +14707n +14706n +14705n +14704n +14703n +14702n +14701n +14700n +14699n +14698n +14697n +14696n +14695n +14694n +14693n +14692n +14691n +14690n +14689n +14688n +14687n +14686n +14685n +14684n +14683n +14682n +14681n +14680n +14679n +14678n +14677n +14676n +14675n +14674n +14673n +14672n +14671n +14670n +14669n +14668n +14667n +14666n +14665n +14664n +14663n +14662n +14661n +14660n +14659n +14658n +14657n +14656n +14655n +14654n +14653n +14652n +14651n +14650n +14649n +14648n +14647n +14646n +14645n +14644n +14643n +14642n +14641n +14640n +14639n +14638n +14637n +14636n +14635n +14634n +14633n +14632n +14631n +14630n +14629n +14628n +14627n +14626n +14625n +14624n +14623n +14622n +14621n +14620n +14619n +14618n +14617n +14616n +14615n +14614n +14613n +14612n +14611n +14610n +14609n +14608n +14607n +14606n +14605n +14604n +14603n +14602n +14601n +14600n +14599n +14598n +14597n +14596n +14595n +14594n +14593n +14592n +14591n +14590n +14589n +14588n +14587n +14586n +14585n +14584n +14583n +14582n +14581n +14580n +14579n +14578n +14577n +14576n +14575n +14574n +14573n +14572n +14571n +14570n +14569n +14568n +14567n +14566n +14565n +14564n +14563n +14562n +14561n +14560n +14559n +14558n +14557n +14556n +14555n +14554n +14553n +14552n +14551n +14550n +14549n +14548n +14547n +14546n +14545n +14544n +14543n +14542n +14541n +14540n +14539n +14538n +14537n +14536n +14535n +14534n +14533n +14532n +14531n +14530n +14529n +14528n +14527n +14526n +14525n +14524n +14523n +14522n +14521n +14520n +14519n +14518n +14517n +14516n +14515n +14514n +14513n +14512n +14511n +14510n +14509n +14508n +14507n +14506n +14505n +14504n +14503n +14502n +14501n +14500n +14499n +14498n +14497n +14496n +14495n +14494n +14493n +14492n +14491n +14490n +14489n +14488n +14487n +14486n +14485n +14484n +14483n +14482n +14481n +14480n +14479n +14478n +14477n +14476n +14475n +14474n +14473n +14472n +14471n +14470n +14469n +14468n +14467n +14466n +14465n +14464n +14463n +14462n +14461n +14460n +14459n +14458n +14457n +14456n +14455n +14454n +14453n +14452n +14451n +14450n +14449n +14448n +14447n +14446n +14445n +14444n +14443n +14442n +14441n +14440n +14439n +14438n +14437n +14436n +14435n +14434n +14433n +14432n +14431n +14430n +14429n +14428n +14427n +14426n +14425n +14424n +14423n +14422n +14421n +14420n +14419n +14418n +14417n +14416n +14415n +14414n +14413n +14412n +14411n +14410n +14409n +14408n +14407n +14406n +14405n +14404n +14403n +14402n +14401n +14400n +14399n +14398n +14397n +14396n +14395n +14394n +14393n +14392n +14391n +14390n +14389n +14388n +14387n +14386n +14385n +14384n +14383n +14382n +14381n +14380n +14379n +14378n +14377n +14376n +14375n +14374n +14373n +14372n +14371n +14370n +14369n +14368n +14367n +14366n +14365n +14364n +14363n +14362n +14361n +14360n +14359n +14358n +14357n +14356n +14355n +14354n +14353n +14352n +14351n +14350n +14349n +14348n +14347n +14346n +14345n +14344n +14343n +14342n +14341n +14340n +14339n +14338n +14337n +14336n +14335n +14334n +14333n +14332n +14331n +14330n +14329n +14328n +14327n +14326n +14325n +14324n +14323n +14322n +14321n +14320n +14319n +14318n +14317n +14316n +14315n +14314n +14313n +14312n +14311n +14310n +14309n +14308n +14307n +14306n +14305n +14304n +14303n +14302n +14301n +14300n +14299n +14298n +14297n +14296n +14295n +14294n +14293n +14292n +14291n +14290n +14289n +14288n +14287n +14286n +14285n +14284n +14283n +14282n +14281n +14280n +14279n +14278n +14277n +14276n +14275n +14274n +14273n +14272n +14271n +14270n +14269n +14268n +14267n +14266n +14265n +14264n +14263n +14262n +14261n +14260n +14259n +14258n +14257n +14256n +14255n +14254n +14253n +14252n +14251n +14250n +14249n +14248n +14247n +14246n +14245n +14244n +14243n +14242n +14241n +14240n +14239n +14238n +14237n +14236n +14235n +14234n +14233n +14232n +14231n +14230n +14229n +14228n +14227n +14226n +14225n +14224n +14223n +14222n +14221n +14220n +14219n +14218n +14217n +14216n +14215n +14214n +14213n +14212n +14211n +14210n +14209n +14208n +14207n +14206n +14205n +14204n +14203n +14202n +14201n +14200n +14199n +14198n +14197n +14196n +14195n +14194n +14193n +14192n +14191n +14190n +14189n +14188n +14187n +14186n +14185n +14184n +14183n +14182n +14181n +14180n +14179n +14178n +14177n +14176n +14175n +14174n +14173n +14172n +14171n +14170n +14169n +14168n +14167n +14166n +14165n +14164n +14163n +14162n +14161n +14160n +14159n +14158n +14157n +14156n +14155n +14154n +14153n +14152n +14151n +14150n +14149n +14148n +14147n +14146n +14145n +14144n +14143n +14142n +14141n +14140n +14139n +14138n +14137n +14136n +14135n +14134n +14133n +14132n +14131n +14130n +14129n +14128n +14127n +14126n +14125n +14124n +14123n +14122n +14121n +14120n +14119n +14118n +14117n +14116n +14115n +14114n +14113n +14112n +14111n +14110n +14109n +14108n +14107n +14106n +14105n +14104n +14103n +14102n +14101n +14100n +14099n +14098n +14097n +14096n +14095n +14094n +14093n +14092n +14091n +14090n +14089n +14088n +14087n +14086n +14085n +14084n +14083n +14082n +14081n +14080n +14079n +14078n +14077n +14076n +14075n +14074n +14073n +14072n +14071n +14070n +14069n +14068n +14067n +14066n +14065n +14064n +14063n +14062n +14061n +14060n +14059n +14058n +14057n +14056n +14055n +14054n +14053n +14052n +14051n +14050n +14049n +14048n +14047n +14046n +14045n +14044n +14043n +14042n +14041n +14040n +14039n +14038n +14037n +14036n +14035n +14034n +14033n +14032n +14031n +14030n +14029n +14028n +14027n +14026n +14025n +14024n +14023n +14022n +14021n +14020n +14019n +14018n +14017n +14016n +14015n +14014n +14013n +14012n +14011n +14010n +14009n +14008n +14007n +14006n +14005n +14004n +14003n +14002n +14001n +14000n +13999n +13998n +13997n +13996n +13995n +13994n +13993n +13992n +13991n +13990n +13989n +13988n +13987n +13986n +13985n +13984n +13983n +13982n +13981n +13980n +13979n +13978n +13977n +13976n +13975n +13974n +13973n +13972n +13971n +13970n +13969n +13968n +13967n +13966n +13965n +13964n +13963n +13962n +13961n +13960n +13959n +13958n +13957n +13956n +13955n +13954n +13953n +13952n +13951n +13950n +13949n +13948n +13947n +13946n +13945n +13944n +13943n +13942n +13941n +13940n +13939n +13938n +13937n +13936n +13935n +13934n +13933n +13932n +13931n +13930n +13929n +13928n +13927n +13926n +13925n +13924n +13923n +13922n +13921n +13920n +13919n +13918n +13917n +13916n +13915n +13914n +13913n +13912n +13911n +13910n +13909n +13908n +13907n +13906n +13905n +13904n +13903n +13902n +13901n +13900n +13899n +13898n +13897n +13896n +13895n +13894n +13893n +13892n +13891n +13890n +13889n +13888n +13887n +13886n +13885n +13884n +13883n +13882n +13881n +13880n +13879n +13878n +13877n +13876n +13875n +13874n +13873n +13872n +13871n +13870n +13869n +13868n +13867n +13866n +13865n +13864n +13863n +13862n +13861n +13860n +13859n +13858n +13857n +13856n +13855n +13854n +13853n +13852n +13851n +13850n +13849n +13848n +13847n +13846n +13845n +13844n +13843n +13842n +13841n +13840n +13839n +13838n +13837n +13836n +13835n +13834n +13833n +13832n +13831n +13830n +13829n +13828n +13827n +13826n +13825n +13824n +13823n +13822n +13821n +13820n +13819n +13818n +13817n +13816n +13815n +13814n +13813n +13812n +13811n +13810n +13809n +13808n +13807n +13806n +13805n +13804n +13803n +13802n +13801n +13800n +13799n +13798n +13797n +13796n +13795n +13794n +13793n +13792n +13791n +13790n +13789n +13788n +13787n +13786n +13785n +13784n +13783n +13782n +13781n +13780n +13779n +13778n +13777n +13776n +13775n +13774n +13773n +13772n +13771n +13770n +13769n +13768n +13767n +13766n +13765n +13764n +13763n +13762n +13761n +13760n +13759n +13758n +13757n +13756n +13755n +13754n +13753n +13752n +13751n +13750n +13749n +13748n +13747n +13746n +13745n +13744n +13743n +13742n +13741n +13740n +13739n +13738n +13737n +13736n +13735n +13734n +13733n +13732n +13731n +13730n +13729n +13728n +13727n +13726n +13725n +13724n +13723n +13722n +13721n +13720n +13719n +13718n +13717n +13716n +13715n +13714n +13713n +13712n +13711n +13710n +13709n +13708n +13707n +13706n +13705n +13704n +13703n +13702n +13701n +13700n +13699n +13698n +13697n +13696n +13695n +13694n +13693n +13692n +13691n +13690n +13689n +13688n +13687n +13686n +13685n +13684n +13683n +13682n +13681n +13680n +13679n +13678n +13677n +13676n +13675n +13674n +13673n +13672n +13671n +13670n +13669n +13668n +13667n +13666n +13665n +13664n +13663n +13662n +13661n +13660n +13659n +13658n +13657n +13656n +13655n +13654n +13653n +13652n +13651n +13650n +13649n +13648n +13647n +13646n +13645n +13644n +13643n +13642n +13641n +13640n +13639n +13638n +13637n +13636n +13635n +13634n +13633n +13632n +13631n +13630n +13629n +13628n +13627n +13626n +13625n +13624n +13623n +13622n +13621n +13620n +13619n +13618n +13617n +13616n +13615n +13614n +13613n +13612n +13611n +13610n +13609n +13608n +13607n +13606n +13605n +13604n +13603n +13602n +13601n +13600n +13599n +13598n +13597n +13596n +13595n +13594n +13593n +13592n +13591n +13590n +13589n +13588n +13587n +13586n +13585n +13584n +13583n +13582n +13581n +13580n +13579n +13578n +13577n +13576n +13575n +13574n +13573n +13572n +13571n +13570n +13569n +13568n +13567n +13566n +13565n +13564n +13563n +13562n +13561n +13560n +13559n +13558n +13557n +13556n +13555n +13554n +13553n +13552n +13551n +13550n +13549n +13548n +13547n +13546n +13545n +13544n +13543n +13542n +13541n +13540n +13539n +13538n +13537n +13536n +13535n +13534n +13533n +13532n +13531n +13530n +13529n +13528n +13527n +13526n +13525n +13524n +13523n +13522n +13521n +13520n +13519n +13518n +13517n +13516n +13515n +13514n +13513n +13512n +13511n +13510n +13509n +13508n +13507n +13506n +13505n +13504n +13503n +13502n +13501n +13500n +13499n +13498n +13497n +13496n +13495n +13494n +13493n +13492n +13491n +13490n +13489n +13488n +13487n +13486n +13485n +13484n +13483n +13482n +13481n +13480n +13479n +13478n +13477n +13476n +13475n +13474n +13473n +13472n +13471n +13470n +13469n +13468n +13467n +13466n +13465n +13464n +13463n +13462n +13461n +13460n +13459n +13458n +13457n +13456n +13455n +13454n +13453n +13452n +13451n +13450n +13449n +13448n +13447n +13446n +13445n +13444n +13443n +13442n +13441n +13440n +13439n +13438n +13437n +13436n +13435n +13434n +13433n +13432n +13431n +13430n +13429n +13428n +13427n +13426n +13425n +13424n +13423n +13422n +13421n +13420n +13419n +13418n +13417n +13416n +13415n +13414n +13413n +13412n +13411n +13410n +13409n +13408n +13407n +13406n +13405n +13404n +13403n +13402n +13401n +13400n +13399n +13398n +13397n +13396n +13395n +13394n +13393n +13392n +13391n +13390n +13389n +13388n +13387n +13386n +13385n +13384n +13383n +13382n +13381n +13380n +13379n +13378n +13377n +13376n +13375n +13374n +13373n +13372n +13371n +13370n +13369n +13368n +13367n +13366n +13365n +13364n +13363n +13362n +13361n +13360n +13359n +13358n +13357n +13356n +13355n +13354n +13353n +13352n +13351n +13350n +13349n +13348n +13347n +13346n +13345n +13344n +13343n +13342n +13341n +13340n +13339n +13338n +13337n +13336n +13335n +13334n +13333n +13332n +13331n +13330n +13329n +13328n +13327n +13326n +13325n +13324n +13323n +13322n +13321n +13320n +13319n +13318n +13317n +13316n +13315n +13314n +13313n +13312n +13311n +13310n +13309n +13308n +13307n +13306n +13305n +13304n +13303n +13302n +13301n +13300n +13299n +13298n +13297n +13296n +13295n +13294n +13293n +13292n +13291n +13290n +13289n +13288n +13287n +13286n +13285n +13284n +13283n +13282n +13281n +13280n +13279n +13278n +13277n +13276n +13275n +13274n +13273n +13272n +13271n +13270n +13269n +13268n +13267n +13266n +13265n +13264n +13263n +13262n +13261n +13260n +13259n +13258n +13257n +13256n +13255n +13254n +13253n +13252n +13251n +13250n +13249n +13248n +13247n +13246n +13245n +13244n +13243n +13242n +13241n +13240n +13239n +13238n +13237n +13236n +13235n +13234n +13233n +13232n +13231n +13230n +13229n +13228n +13227n +13226n +13225n +13224n +13223n +13222n +13221n +13220n +13219n +13218n +13217n +13216n +13215n +13214n +13213n +13212n +13211n +13210n +13209n +13208n +13207n +13206n +13205n +13204n +13203n +13202n +13201n +13200n +13199n +13198n +13197n +13196n +13195n +13194n +13193n +13192n +13191n +13190n +13189n +13188n +13187n +13186n +13185n +13184n +13183n +13182n +13181n +13180n +13179n +13178n +13177n +13176n +13175n +13174n +13173n +13172n +13171n +13170n +13169n +13168n +13167n +13166n +13165n +13164n +13163n +13162n +13161n +13160n +13159n +13158n +13157n +13156n +13155n +13154n +13153n +13152n +13151n +13150n +13149n +13148n +13147n +13146n +13145n +13144n +13143n +13142n +13141n +13140n +13139n +13138n +13137n +13136n +13135n +13134n +13133n +13132n +13131n +13130n +13129n +13128n +13127n +13126n +13125n +13124n +13123n +13122n +13121n +13120n +13119n +13118n +13117n +13116n +13115n +13114n +13113n +13112n +13111n +13110n +13109n +13108n +13107n +13106n +13105n +13104n +13103n +13102n +13101n +13100n +13099n +13098n +13097n +13096n +13095n +13094n +13093n +13092n +13091n +13090n +13089n +13088n +13087n +13086n +13085n +13084n +13083n +13082n +13081n +13080n +13079n +13078n +13077n +13076n +13075n +13074n +13073n +13072n +13071n +13070n +13069n +13068n +13067n +13066n +13065n +13064n +13063n +13062n +13061n +13060n +13059n +13058n +13057n +13056n +13055n +13054n +13053n +13052n +13051n +13050n +13049n +13048n +13047n +13046n +13045n +13044n +13043n +13042n +13041n +13040n +13039n +13038n +13037n +13036n +13035n +13034n +13033n +13032n +13031n +13030n +13029n +13028n +13027n +13026n +13025n +13024n +13023n +13022n +13021n +13020n +13019n +13018n +13017n +13016n +13015n +13014n +13013n +13012n +13011n +13010n +13009n +13008n +13007n +13006n +13005n +13004n +13003n +13002n +13001n +13000n +12999n +12998n +12997n +12996n +12995n +12994n +12993n +12992n +12991n +12990n +12989n +12988n +12987n +12986n +12985n +12984n +12983n +12982n +12981n +12980n +12979n +12978n +12977n +12976n +12975n +12974n +12973n +12972n +12971n +12970n +12969n +12968n +12967n +12966n +12965n +12964n +12963n +12962n +12961n +12960n +12959n +12958n +12957n +12956n +12955n +12954n +12953n +12952n +12951n +12950n +12949n +12948n +12947n +12946n +12945n +12944n +12943n +12942n +12941n +12940n +12939n +12938n +12937n +12936n +12935n +12934n +12933n +12932n +12931n +12930n +12929n +12928n +12927n +12926n +12925n +12924n +12923n +12922n +12921n +12920n +12919n +12918n +12917n +12916n +12915n +12914n +12913n +12912n +12911n +12910n +12909n +12908n +12907n +12906n +12905n +12904n +12903n +12902n +12901n +12900n +12899n +12898n +12897n +12896n +12895n +12894n +12893n +12892n +12891n +12890n +12889n +12888n +12887n +12886n +12885n +12884n +12883n +12882n +12881n +12880n +12879n +12878n +12877n +12876n +12875n +12874n +12873n +12872n +12871n +12870n +12869n +12868n +12867n +12866n +12865n +12864n +12863n +12862n +12861n +12860n +12859n +12858n +12857n +12856n +12855n +12854n +12853n +12852n +12851n +12850n +12849n +12848n +12847n +12846n +12845n +12844n +12843n +12842n +12841n +12840n +12839n +12838n +12837n +12836n +12835n +12834n +12833n +12832n +12831n +12830n +12829n +12828n +12827n +12826n +12825n +12824n +12823n +12822n +12821n +12820n +12819n +12818n +12817n +12816n +12815n +12814n +12813n +12812n +12811n +12810n +12809n +12808n +12807n +12806n +12805n +12804n +12803n +12802n +12801n +12800n +12799n +12798n +12797n +12796n +12795n +12794n +12793n +12792n +12791n +12790n +12789n +12788n +12787n +12786n +12785n +12784n +12783n +12782n +12781n +12780n +12779n +12778n +12777n +12776n +12775n +12774n +12773n +12772n +12771n +12770n +12769n +12768n +12767n +12766n +12765n +12764n +12763n +12762n +12761n +12760n +12759n +12758n +12757n +12756n +12755n +12754n +12753n +12752n +12751n +12750n +12749n +12748n +12747n +12746n +12745n +12744n +12743n +12742n +12741n +12740n +12739n +12738n +12737n +12736n +12735n +12734n +12733n +12732n +12731n +12730n +12729n +12728n +12727n +12726n +12725n +12724n +12723n +12722n +12721n +12720n +12719n +12718n +12717n +12716n +12715n +12714n +12713n +12712n +12711n +12710n +12709n +12708n +12707n +12706n +12705n +12704n +12703n +12702n +12701n +12700n +12699n +12698n +12697n +12696n +12695n +12694n +12693n +12692n +12691n +12690n +12689n +12688n +12687n +12686n +12685n +12684n +12683n +12682n +12681n +12680n +12679n +12678n +12677n +12676n +12675n +12674n +12673n +12672n +12671n +12670n +12669n +12668n +12667n +12666n +12665n +12664n +12663n +12662n +12661n +12660n +12659n +12658n +12657n +12656n +12655n +12654n +12653n +12652n +12651n +12650n +12649n +12648n +12647n +12646n +12645n +12644n +12643n +12642n +12641n +12640n +12639n +12638n +126