HEADER
"PSFversion" "1.00"
"I0n" "SRAM_array_128x16_extracted"
"N25n N28n N29n N50n N51n N54n N55n N3n N2n N5n N4n N31n N30n N33n N32n N24n" "NCSU_Analog_Parts_pmos4_spectre"
