HEADER
"PSFversion" "1.00"
"__NEXT_FILE__" "SRAM_array_128x16_test"
